Package: jaguar-missing-headers
Version: 1.1
Revision: 2
Type: nosource
Depends: cctools (>= 446-1)
CompileScript: echo "nothing to do"
InstallScript: <<
  mkdir -p %i/include
  ln -s /usr/include/netinet %i/include/netinet
<<
PreInstScript: <<
  if test ! -d /usr/include/netinet; then
    cat <<END

*** ERROR *** ERROR *** ERROR *** ERROR *** ERROR ***

Your developer tools say that they're at or newer than
the December 2002 developer toolchain, but you are
missing the /usr/include/netinet directory!  Something
has gone wrong, you should probably attempt
re-installing your tools.  Make sure you enable the
BSD SDK.

*** ERROR *** ERROR *** ERROR *** ERROR *** ERROR ***

END
    exit 1
  fi

  echo "WARNING: you have an existing %p/include/netinet directory"
  echo "I'm going to move it out of the way."
  mv %p/include/netinet %p/include/netinet.old || true
<<
PostInstScript: <<
  if test -L %p/include/netinet; then
    echo "the new netinet symlink was created properly, moving the"
    echo "old one to /tmp, just in case."
    mv %p/include/netinet.old /tmp/netinet.old || true
  fi
<<
Description: Headers that have been missing in certain Jaguar versions
DescDetail: <<
This package used to contain headers that were missing in Jaguar, but
they are now available (and complete) in the December 2002 developer tools.
<<
License: OSI-Approved
Homepage: http://www.opensource.apple.com/
Maintainer: Benjamin Reed <ranger@befunk.com>
